CHARMM-GUI lammps input

              1417  atoms
               951  bonds
               501  angles
                43  dihedrals
                 4  impropers
                 0  crossterms

                10  atom types
                11  bond types
                21  angle types
                26  dihedral types
                 2  improper types

    -12.5000      12.5000 xlo xhi
    -12.5000      12.5000 ylo yhi
    -12.5000      12.5000 zlo zhi

Masses

       1         1.008  # H
       2         1.008  # HA3
       3         1.008  # HB1
       4         1.008  # HT
       5        12.011  # C
       6        12.011  # CT1
       7        12.011  # CT3
       8        14.007  # NH1
       9        15.999  # O
      10        15.999  # OT

Pair Coeffs

       1 0.04600000000000 0.40001352444501 0.04600000000000 0.40001352444501 # H
       2 0.02400000000000 2.38760856461611 0.02400000000000 2.38760856461611 # HA3
       3 0.02200000000000 2.35197261589050 0.02200000000000 2.35197261589050 # HB1
       4 0.04600000000000 0.40001352444501 0.04600000000000 0.40001352444501 # HT
       5 0.11000000000000 3.56359487256136 0.11000000000000 3.56359487256136 # C
       6 0.03200000000000 3.56359487256136 0.01000000000000 3.38541512893329 # CT1
       7 0.07800000000000 3.63486677001258 0.01000000000000 3.38541512893329 # CT3
       8 0.20000000000000 3.29632525711926 0.20000000000000 2.76178602623505 # NH1
       9 0.12000000000000 3.02905564167715 0.12000000000000 2.49451641079295 # O
      10 0.15210000000000 3.15057422683150 0.15210000000000 3.15057422683150 # OT

Atoms

           1        1      7  -0.270    -3.2292148866    -0.9835996758     0.0988859057 # PROA-1-ALA-CAY-CT3
           2        1      2   0.090    -3.4176460179    -2.0571151489    -0.0892700397 # PROA-1-ALA-HY1-HA3
           3        1      2   0.090    -3.8115352752    -0.3850711638    -0.6320301084 # PROA-1-ALA-HY2-HA3
           4        1      2   0.090    -3.5630427173    -0.7256940222     1.1263593114 # PROA-1-ALA-HY3-HA3
           5        1      5   0.510    -1.7740855741    -0.6954457384    -0.0413495823 # PROA-1-ALA-CY-C
           6        1      9  -0.510    -0.9356824741    -1.5840354461     0.1014389793 # PROA-1-ALA-OY-O
           7        1      8  -0.470    -1.4388573732     0.5749672996    -0.3289217754 # PROA-1-ALA-N-NH1
           8        1      1   0.310    -2.1304874503     1.2854796625    -0.3783292852 # PROA-1-ALA-HN-H
           9        1      6   0.070    -0.0390716342     0.9410126369    -0.4826608264 # PROA-1-ALA-CA-CT1
          10        1      3   0.090     0.1287119115     1.1778456827    -1.5242193192 # PROA-1-ALA-HA-HB1
          11        1      7  -0.270     0.3275973853     2.1175473190     0.4140085508 # PROA-1-ALA-CB-CT3
          12        1      2   0.090     0.2036829554     1.8429085928     1.4853763016 # PROA-1-ALA-HB1-HA3
          13        1      2   0.090    -0.3493251684     2.9740728580     0.2003541156 # PROA-1-ALA-HB2-HA3
          14        1      2   0.090     1.3701921670     2.4514076191     0.2349377505 # PROA-1-ALA-HB3-HA3
          15        1      5   0.510     0.8147139552    -0.2913110832    -0.1385352442 # PROA-1-ALA-C-C
          16        1      9  -0.510     0.3337731128    -1.3702250382     0.2010300425 # PROA-1-ALA-O-O
          17        1      8  -0.470     2.1484200819    -0.1406348444    -0.2254239016 # PROA-1-ALA-NT-NH1
          18        1      1   0.310     2.5614182465     0.7318100177    -0.4746187861 # PROA-1-ALA-HNT-H
          19        1      7  -0.110     3.0132488780    -1.2383542760     0.0778634259 # PROA-1-ALA-CAT-CT3
          20        1      2   0.090     3.0399512047    -1.9542301495    -0.7743840346 # PROA-1-ALA-HT1-HA3
          21        1      2   0.090     2.6738057547    -1.7900205443     0.9855646493 # PROA-1-ALA-HT2-HA3
          22        1      2   0.090     4.0431331087    -0.8666348936     0.2719129885 # PROA-1-ALA-HT3-HA3
          23        1     10  -0.834    -0.1967071440    -2.0187902852    -5.6926310002 # SOLV-1-TIP3-OH2-OT
          24        1      4   0.417    -0.4599395667    -1.1170851590    -5.9759294900 # SOLV-1-TIP3-H1-HT
          25        1      4   0.417    -0.9052495053    -2.5374083709    -6.1096110093 # SOLV-1-TIP3-H2-HT
          26        2     10  -0.834    -2.4958662518    -3.0695197464    -2.1675418443 # SOLV-2-TIP3-OH2-OT
          27        2      4   0.417    -1.6913313886    -2.9052145604    -1.6519316753 # SOLV-2-TIP3-H1-HT
          28        2      4   0.417    -2.4395530475    -4.0046973410    -2.4069561721 # SOLV-2-TIP3-H2-HT
          29        3     10  -0.834    -9.4243834693    -3.5756816788    -0.7395140854 # SOLV-3-TIP3-OH2-OT
          30        3      4   0.417    -9.4615747385    -4.4414255844    -0.2946053242 # SOLV-3-TIP3-H1-HT
          31        3      4   0.417    -8.6830326549    -3.1575452142    -0.2852215715 # SOLV-3-TIP3-H2-HT
          32        4     10  -0.834     1.7808028584    -0.3574524860    -3.9738384915 # SOLV-4-TIP3-OH2-OT
          33        4      4   0.417     1.1192946166    -1.0500771191    -4.1432381369 # SOLV-4-TIP3-H1-HT
          34        4      4   0.417     2.2772633589    -0.7043777252    -3.2278059963 # SOLV-4-TIP3-H2-HT
          35        5     10  -0.834    -8.1418191905     1.1440377626    -2.2196658413 # SOLV-5-TIP3-OH2-OT
          36        5      4   0.417    -8.3530488541     0.2172021157    -2.4704103336 # SOLV-5-TIP3-H1-HT
          37        5      4   0.417    -7.1734448740     1.0809729164    -2.1564599842 # SOLV-5-TIP3-H2-HT
          38        6     10  -0.834   -10.9961306388    -5.0161220324    -7.4471850407 # SOLV-6-TIP3-OH2-OT
          39        6      4   0.417   -11.6780165829    -5.1504947658    -6.7524516595 # SOLV-6-TIP3-H1-HT
          40        6      4   0.417   -11.5576651405    -4.9139579881    -8.2263792932 # SOLV-6-TIP3-H2-HT
          41        7     10  -0.834   -10.9522644189    -3.1969217022    -4.4189675571 # SOLV-7-TIP3-OH2-OT
          42        7      4   0.417   -10.7227343372    -4.1345258165    -4.2399323428 # SOLV-7-TIP3-H1-HT
          43        7      4   0.417   -10.2229533907    -2.9052986506    -4.9759337018 # SOLV-7-TIP3-H2-HT
          44        8     10  -0.834    -0.6681172352     5.0568251940    -3.3402958785 # SOLV-8-TIP3-OH2-OT
          45        8      4   0.417    -0.3457275195     4.3093339747    -3.8788209310 # SOLV-8-TIP3-H1-HT
          46        8      4   0.417    -1.2197636000     4.6412341004    -2.6666499968 # SOLV-8-TIP3-H2-HT
          47        9     10  -0.834     5.5592619933    -9.1929376111    -0.7147858358 # SOLV-9-TIP3-OH2-OT
          48        9      4   0.417     5.7488008562    -8.4627571128    -0.0861558730 # SOLV-9-TIP3-H1-HT
          49        9      4   0.417     6.2182142175    -9.0031227900    -1.4169457956 # SOLV-9-TIP3-H2-HT
          50       10     10  -0.834    -0.0411249907    -6.1106667833    -1.9764677600 # SOLV-10-TIP3-OH2-OT
          51       10      4   0.417     0.0152096325    -7.0673589146    -1.7739931093 # SOLV-10-TIP3-H1-HT
          52       10      4   0.417    -0.4009460386    -6.1656371789    -2.8851949623 # SOLV-10-TIP3-H2-HT
          53       11     10  -0.834    -6.4261701503    -8.3066607446    -4.2487370525 # SOLV-11-TIP3-OH2-OT
          54       11      4   0.417    -6.3782576475    -7.4227198391    -4.6717838686 # SOLV-11-TIP3-H1-HT
          55       11      4   0.417    -6.9450970288    -8.7833943713    -4.9306265400 # SOLV-11-TIP3-H2-HT
          56       12     10  -0.834     1.1502991298    -7.9828246289    -5.9106313030 # SOLV-12-TIP3-OH2-OT
          57       12      4   0.417     1.5679470990    -8.2231369425    -5.0492005837 # SOLV-12-TIP3-H1-HT
          58       12      4   0.417     1.8940873496    -7.5419207889    -6.3605232039 # SOLV-12-TIP3-H2-HT
          59       13     10  -0.834   -10.1771317565    -5.7321297317    -3.6069682972 # SOLV-13-TIP3-OH2-OT
          60       13      4   0.417    -9.5069808913    -6.1737432608    -3.0577305833 # SOLV-13-TIP3-H1-HT
          61       13      4   0.417    -9.9288508610    -6.0601651857    -4.4995648115 # SOLV-13-TIP3-H2-HT
          62       14     10  -0.834    -5.3124418071    -4.3000407812    -3.8917603594 # SOLV-14-TIP3-OH2-OT
          63       14      4   0.417    -4.4462485476    -4.6874578815    -3.6359946379 # SOLV-14-TIP3-H1-HT
          64       14      4   0.417    -5.6665635257    -4.9936779041    -4.4890578519 # SOLV-14-TIP3-H2-HT
          65       15     10  -0.834     5.9614823113    -7.4468232871     1.3514889439 # SOLV-15-TIP3-OH2-OT
          66       15      4   0.417     5.1731417414    -6.8755658036     1.2314423163 # SOLV-15-TIP3-H1-HT
          67       15      4   0.417     6.1343268521    -7.3450391273     2.3046705238 # SOLV-15-TIP3-H2-HT
          68       16     10  -0.834    -7.9678610028    -9.1565537624    -0.0970294923 # SOLV-16-TIP3-OH2-OT
          69       16      4   0.417    -8.2051256966    -8.5305321816    -0.8100117469 # SOLV-16-TIP3-H1-HT
          70       16      4   0.417    -8.7115414344    -8.9987951640     0.5290355036 # SOLV-16-TIP3-H2-HT
          71       17     10  -0.834    -0.7782191181     0.3827873897    -6.8420401327 # SOLV-17-TIP3-OH2-OT
          72       17      4   0.417    -0.9971285998     0.3510774096    -7.7904004770 # SOLV-17-TIP3-H1-HT
          73       17      4   0.417    -1.3066451085     1.1648092355    -6.5585366612 # SOLV-17-TIP3-H2-HT
          74       18     10  -0.834     2.0104104220    -8.5434206197    -3.3905470391 # SOLV-18-TIP3-OH2-OT
          75       18      4   0.417     1.2921180014    -8.6766307186    -2.7403986489 # SOLV-18-TIP3-H1-HT
          76       18      4   0.417     2.6423459272    -8.0012470373    -2.8677854913 # SOLV-18-TIP3-H2-HT
          77       19     10  -0.834    -8.2331482423    -7.4601397292    -2.2901553724 # SOLV-19-TIP3-OH2-OT
          78       19      4   0.417    -7.6654814452    -6.8425394717    -1.7771409934 # SOLV-19-TIP3-H1-HT
          79       19      4   0.417    -7.5839334246    -7.8002714265    -2.9448224970 # SOLV-19-TIP3-H2-HT
          80       20     10  -0.834    -6.7666480180     0.7102781311     0.8994990257 # SOLV-20-TIP3-OH2-OT
          81       20      4   0.417    -6.7804014150     1.6805612255     0.8010304397 # SOLV-20-TIP3-H1-HT
          82       20      4   0.417    -7.7215414754     0.5372060293     0.9804905587 # SOLV-20-TIP3-H2-HT
          83       21     10  -0.834   -10.7299619750     0.3089817473    -7.8946315404 # SOLV-21-TIP3-OH2-OT
          84       21      4   0.417   -11.1144469844     0.7041029790    -8.6960811130 # SOLV-21-TIP3-H1-HT
          85       21      4   0.417   -10.5965817457     1.1003168570    -7.3326069591 # SOLV-21-TIP3-H2-HT
          86       22     10  -0.834     3.2511165584   -10.0965203506     0.3515935276 # SOLV-22-TIP3-OH2-OT
          87       22      4   0.417     2.4988221072    -9.8029922321    -0.1856915787 # SOLV-22-TIP3-H1-HT
          88       22      4   0.417     4.0126925812    -9.6941582041    -0.1315607039 # SOLV-22-TIP3-H2-HT
          89       23     10  -0.834    -4.5359547785   -11.6359173959    -2.6324706154 # SOLV-23-TIP3-OH2-OT
          90       23      4   0.417    -4.3566335501   -12.3191959501    -1.9521876892 # SOLV-23-TIP3-H1-HT
          91       23      4   0.417    -5.4482343701   -11.3873710356    -2.3717189338 # SOLV-23-TIP3-H2-HT
          92       24     10  -0.834     0.5840094174     3.4807046825    -5.3056953021 # SOLV-24-TIP3-OH2-OT
          93       24      4   0.417     1.0645820534     2.6764090094    -5.6062122163 # SOLV-24-TIP3-H1-HT
          94       24      4   0.417     1.3271267211     4.1252452786    -5.3112190759 # SOLV-24-TIP3-H2-HT
          95       25     10  -0.834     1.8061618925     1.2244727244    -6.2196951070 # SOLV-25-TIP3-OH2-OT
          96       25      4   0.417     0.9777365524     0.7989011312    -6.5079769065 # SOLV-25-TIP3-H1-HT
          97       25      4   0.417     2.0075129184     0.7024901289    -5.4125310077 # SOLV-25-TIP3-H2-HT
          98       26     10  -0.834    -1.7748181981    -3.0075083769    -7.9202068611 # SOLV-26-TIP3-OH2-OT
          99       26      4   0.417    -2.5486662155    -2.4211392091    -8.0557474527 # SOLV-26-TIP3-H1-HT
         100       26      4   0.417    -1.3669299121    -2.9617734415    -8.7947035296 # SOLV-26-TIP3-H2-HT
         101       27     10  -0.834    -1.8737523348    -4.6097889154   -10.8030331974 # SOLV-27-TIP3-OH2-OT
         102       27      4   0.417    -1.0125614810    -4.3735358189   -10.4175777828 # SOLV-27-TIP3-H1-HT
         103       27      4   0.417    -1.6004913595    -5.0760051594   -11.6187367391 # SOLV-27-TIP3-H2-HT
         104       28     10  -0.834     5.4290672833    -3.4873851505     0.2575527188 # SOLV-28-TIP3-OH2-OT
         105       28      4   0.417     4.8319522475    -2.7930571859    -0.0440057534 # SOLV-28-TIP3-H1-HT
         106       28      4   0.417     6.1316343370    -3.3979213766    -0.4313934747 # SOLV-28-TIP3-H2-HT
         107       29     10  -0.834     1.7744491194    -2.8166346713    -7.4048742302 # SOLV-29-TIP3-OH2-OT
         108       29      4   0.417     1.1339133590    -2.5549042341    -6.7056256276 # SOLV-29-TIP3-H1-HT
         109       29      4   0.417     2.4050185438    -3.3524064324    -6.8736527682 # SOLV-29-TIP3-H2-HT
         110       30     10  -0.834     1.7094023251    -4.7919141085     2.3227998398 # SOLV-30-TIP3-OH2-OT
         111       30      4   0.417     1.4910463536    -3.9908068727     2.8377567545 # SOLV-30-TIP3-H1-HT
         112       30      4   0.417     0.9865588965    -4.7727608109     1.6430656143 # SOLV-30-TIP3-H2-HT
         113       31     10  -0.834    -6.8530627793    -2.4222777760    -5.2176421104 # SOLV-31-TIP3-OH2-OT
         114       31      4   0.417    -7.0610824205    -2.8341589177    -6.0813408443 # SOLV-31-TIP3-H1-HT
         115       31      4   0.417    -6.2500617078    -3.0829574315    -4.8133982101 # SOLV-31-TIP3-H2-HT
         116       32     10  -0.834    -5.4143835708     1.3794664553    -2.9576789163 # SOLV-32-TIP3-OH2-OT
         117       32      4   0.417    -5.6467702854     1.5104724301    -3.9058344680 # SOLV-32-TIP3-H1-HT
         118       32      4   0.417    -4.8318087766     0.6123201311    -3.0001730789 # SOLV-32-TIP3-H2-HT
         119       33     10  -0.834    -6.3089366948    -3.4498773356    -1.5034657812 # SOLV-33-TIP3-OH2-OT
         120       33      4   0.417    -5.9444252326    -3.7332750681    -2.3720489432 # SOLV-33-TIP3-H1-HT
         121       33      4   0.417    -5.8442917432    -2.6143424295    -1.3802301494 # SOLV-33-TIP3-H2-HT
         122       34     10  -0.834    -5.2754823245     0.8232729791     3.1777510378 # SOLV-34-TIP3-OH2-OT
         123       34      4   0.417    -5.9825986942     1.3873472572     3.5535879083 # SOLV-34-TIP3-H1-HT
         124       34      4   0.417    -5.6900883510     0.5981353480     2.3155815424 # SOLV-34-TIP3-H2-HT
         125       35     10  -0.834     0.6896595673    -3.7608152918    -9.7408821782 # SOLV-35-TIP3-OH2-OT
         126       35      4   0.417     0.9728659800    -3.3793748139    -8.8785315736 # SOLV-35-TIP3-H1-HT
         127       35      4   0.417     1.4310654218    -3.4408283031   -10.2942732924 # SOLV-35-TIP3-H2-HT
         128       36     10  -0.834    -8.6442102653    -3.1847979712     2.5898654145 # SOLV-36-TIP3-OH2-OT
         129       36      4   0.417    -8.5549353791    -2.3166242289     3.0365638138 # SOLV-36-TIP3-H1-HT
         130       36      4   0.417    -9.6149164952    -3.2249526188     2.4529754289 # SOLV-36-TIP3-H2-HT
         131       37     10  -0.834    -1.8964453223     2.8326129482    -6.2695261593 # SOLV-37-TIP3-OH2-OT
         132       37      4   0.417    -1.0592970127     3.1432368289    -5.8657370332 # SOLV-37-TIP3-H1-HT
         133       37      4   0.417    -2.1846970970     3.6307038556    -6.7439048751 # SOLV-37-TIP3-H2-HT
         134       38     10  -0.834    -7.4444724532     2.5376378293     3.7748431744 # SOLV-38-TIP3-OH2-OT
         135       38      4   0.417    -7.3592113452     2.9005818301     2.8684611483 # SOLV-38-TIP3-H1-HT
         136       38      4   0.417    -8.4205836559     2.4790660704     3.8849902418 # SOLV-38-TIP3-H2-HT
         137       39     10  -0.834     4.4125757571   -12.0273197763    -9.3897236263 # SOLV-39-TIP3-OH2-OT
         138       39      4   0.417     3.5814552244   -11.5259805950    -9.3312851023 # SOLV-39-TIP3-H1-HT
         139       39      4   0.417     4.9752789349   -11.3937668539    -9.8780603863 # SOLV-39-TIP3-H2-HT
         140       40     10  -0.834    -7.6271710787    -3.3042806399    -7.8206751291 # SOLV-40-TIP3-OH2-OT
         141       40      4   0.417    -8.1564578796    -2.5774064446    -8.2228884798 # SOLV-40-TIP3-H1-HT
         142       40      4   0.417    -8.2615560159    -4.0309465073    -7.8650294620 # SOLV-40-TIP3-H2-HT
         143       41     10  -0.834     5.3348319744     2.3411741293   -10.8953380381 # SOLV-41-TIP3-OH2-OT
         144       41      4   0.417     5.5946556873     3.2739812453   -11.0155041806 # SOLV-41-TIP3-H1-HT
         145       41      4   0.417     6.2002172332     1.8985096329   -10.8450131237 # SOLV-41-TIP3-H2-HT
         146       42     10  -0.834   -11.5547671919    -0.8857880470     1.8884202505 # SOLV-42-TIP3-OH2-OT
         147       42      4   0.417   -12.2354888414    -0.5794470314     1.2573317597 # SOLV-42-TIP3-H1-HT
         148       42      4   0.417   -11.5870336646    -1.8550277351     1.7587399776 # SOLV-42-TIP3-H2-HT
         149       43     10  -0.834   -11.6331669510     2.3602438297    -2.0399831279 # SOLV-43-TIP3-OH2-OT
         150       43      4   0.417   -11.4344505919     1.4217458675    -2.1657371009 # SOLV-43-TIP3-H1-HT
         151       43      4   0.417   -11.1356666541     2.5458984704    -1.2172290635 # SOLV-43-TIP3-H2-HT
         152       44     10  -0.834     6.4303572709     2.9345014869     4.1930779506 # SOLV-44-TIP3-OH2-OT
         153       44      4   0.417     6.3086801163     1.9736810426     4.0996428166 # SOLV-44-TIP3-H1-HT
         154       44      4   0.417     5.5105276447     3.1997975581     4.4282341989 # SOLV-44-TIP3-H2-HT
         155       45     10  -0.834    -3.1902505323     2.4709532045     2.2409874529 # SOLV-45-TIP3-OH2-OT
         156       45      4   0.417    -3.1380956637     3.1841509785     2.9072097802 # SOLV-45-TIP3-H1-HT
         157       45      4   0.417    -3.8011735811     1.8383754618     2.6667450607 # SOLV-45-TIP3-H2-HT
         158       46     10  -0.834    -2.0488401910     5.4299581608    -7.6595694854 # SOLV-46-TIP3-OH2-OT
         159       46      4   0.417    -2.2699485688     5.4970278838    -8.6076892535 # SOLV-46-TIP3-H1-HT
         160       46      4   0.417    -2.4000839628     6.2679916709    -7.3114591530 # SOLV-46-TIP3-H2-HT
         161       47     10  -0.834    -8.6109815848     4.5901542578    -5.6028706851 # SOLV-47-TIP3-OH2-OT
         162       47      4   0.417    -8.5390855086     4.2718228680    -4.6750532120 # SOLV-47-TIP3-H1-HT
         163       47      4   0.417    -9.1931570089     3.9045099759    -5.9898392299 # SOLV-47-TIP3-H2-HT
         164       48     10  -0.834     0.3804434549     5.2248358765   -10.7562724796 # SOLV-48-TIP3-OH2-OT
         165       48      4   0.417     0.9685678967     4.5681303039   -11.1783266234 # SOLV-48-TIP3-H1-HT
         166       48      4   0.417     0.6432347410     5.1434159679    -9.8172315042 # SOLV-48-TIP3-H2-HT
         167       49     10  -0.834     0.6884964031     5.1914535195    -7.9972322117 # SOLV-49-TIP3-OH2-OT
         168       49      4   0.417    -0.2661210305     5.1434389024    -7.7749233996 # SOLV-49-TIP3-H1-HT
         169       49      4   0.417     1.0945944674     4.7577703132    -7.2281925744 # SOLV-49-TIP3-H2-HT
         170       50     10  -0.834     3.1937108674    -6.0262821465     4.3216101360 # SOLV-50-TIP3-OH2-OT
         171       50      4   0.417     2.6197379897    -5.6591246190     3.6178841981 # SOLV-50-TIP3-H1-HT
         172       50      4   0.417     3.2593168989    -6.9609059403     4.0405391036 # SOLV-50-TIP3-H2-HT
         173       51     10  -0.834    -9.4189511374     0.8386329109     1.7970284975 # SOLV-51-TIP3-OH2-OT
         174       51      4   0.417    -9.0591220710     0.5520010543     2.6543709344 # SOLV-51-TIP3-H1-HT
         175       51      4   0.417   -10.1929069219     0.2388271044     1.7336696500 # SOLV-51-TIP3-H2-HT
         176       52     10  -0.834    -7.1824190229   -11.1883906846    -1.8006453448 # SOLV-52-TIP3-OH2-OT
         177       52      4   0.417    -7.8941872839   -11.0424068865    -2.4624126287 # SOLV-52-TIP3-H1-HT
         178       52      4   0.417    -7.3995798430   -10.4804926809    -1.1601430161 # SOLV-52-TIP3-H2-HT
         179       53     10  -0.834    -2.2771092888   -10.8649341167     1.6450605236 # SOLV-53-TIP3-OH2-OT
         180       53      4   0.417    -2.1458510695   -11.8249469928     1.5629070293 # SOLV-53-TIP3-H1-HT
         181       53      4   0.417    -3.1677865982   -10.8220148180     2.0093930605 # SOLV-53-TIP3-H2-HT
         182       54     10  -0.834     0.8053706364    -7.5786983828     2.4216547211 # SOLV-54-TIP3-OH2-OT
         183       54      4   0.417     0.1920546090    -7.6676881916     3.1861961446 # SOLV-54-TIP3-H1-HT
         184       54      4   0.417     0.7633046881    -6.6255988524     2.2167091015 # SOLV-54-TIP3-H2-HT
         185       55     10  -0.834     2.7577010982    -2.4003845142   -11.0053672103 # SOLV-55-TIP3-OH2-OT
         186       55      4   0.417     2.4776281062    -1.9377477255   -11.8053116180 # SOLV-55-TIP3-H1-HT
         187       55      4   0.417     2.7379255420    -1.6718705678   -10.3367457925 # SOLV-55-TIP3-H2-HT
         188       56     10  -0.834    -2.6717807514    -8.7155959133   -11.1728079501 # SOLV-56-TIP3-OH2-OT
         189       56      4   0.417    -3.0783090800    -8.7662631904   -10.2803577473 # SOLV-56-TIP3-H1-HT
         190       56      4   0.417    -3.0138611207    -9.5366405370   -11.5426172645 # SOLV-56-TIP3-H2-HT
         191       57     10  -0.834    -6.7675732651    -5.9371853338    -0.5272872203 # SOLV-57-TIP3-OH2-OT
         192       57      4   0.417    -7.5130138804    -5.8572699627     0.1055549960 # SOLV-57-TIP3-H1-HT
         193       57      4   0.417    -6.6330404812    -4.9955936110    -0.7893753919 # SOLV-57-TIP3-H2-HT
         194       58     10  -0.834    -6.5934704503    -5.9690612577    -5.5961241956 # SOLV-58-TIP3-OH2-OT
         195       58      4   0.417    -7.5715017852    -6.0096624103    -5.6691737638 # SOLV-58-TIP3-H1-HT
         196       58      4   0.417    -6.3582417793    -6.1776262509    -6.5279278787 # SOLV-58-TIP3-H2-HT
         197       59     10  -0.834    -1.3610018778    -5.5859497993    -7.0018850631 # SOLV-59-TIP3-OH2-OT
         198       59      4   0.417    -1.5288974540    -4.6677846041    -7.3081892623 # SOLV-59-TIP3-H1-HT
         199       59      4   0.417    -0.6510313622    -5.8728412136    -7.6132954734 # SOLV-59-TIP3-H2-HT
         200       60     10  -0.834    -2.2390526326    -5.4470703436     4.1664438338 # SOLV-60-TIP3-OH2-OT
         201       60      4   0.417    -2.7005504835    -6.2139123618     4.5737929800 # SOLV-60-TIP3-H1-HT
         202       60      4   0.417    -1.3731602700    -5.5083896148     4.6126921704 # SOLV-60-TIP3-H2-HT
         203       61     10  -0.834    -0.8897122084    -6.5960496559    -4.5055392704 # SOLV-61-TIP3-OH2-OT
         204       61      4   0.417    -1.1397777283    -6.0748353642    -5.2991887758 # SOLV-61-TIP3-H1-HT
         205       61      4   0.417    -0.2070181637    -7.1648704229    -4.9106841446 # SOLV-61-TIP3-H2-HT
         206       62     10  -0.834    -9.1028618973    -5.8773816253     0.9492035117 # SOLV-62-TIP3-OH2-OT
         207       62      4   0.417    -9.2477053439    -5.3648112585     1.7558324283 # SOLV-62-TIP3-H1-HT
         208       62      4   0.417    -9.5712713461    -6.7110451783     1.1585749584 # SOLV-62-TIP3-H2-HT
         209       63     10  -0.834    -5.8065922186    -8.8389655714   -12.1687021814 # SOLV-63-TIP3-OH2-OT
         210       63      4   0.417    -6.1458186906    -8.5887512490   -11.2961793892 # SOLV-63-TIP3-H1-HT
         211       63      4   0.417    -5.9920533799    -8.0341526237   -12.6927594982 # SOLV-63-TIP3-H2-HT
         212       64     10  -0.834   -11.8341153395    -8.5453550183    -5.1838668391 # SOLV-64-TIP3-OH2-OT
         213       64      4   0.417   -11.3754293181    -8.5238513097    -4.3096685875 # SOLV-64-TIP3-H1-HT
         214       64      4   0.417   -11.1799514412    -9.0580504711    -5.7017349767 # SOLV-64-TIP3-H2-HT
         215       65     10  -0.834   -11.3260472235    -7.7961415726    -9.2982868090 # SOLV-65-TIP3-OH2-OT
         216       65      4   0.417   -10.5830945167    -7.6815989058    -9.9059598444 # SOLV-65-TIP3-H1-HT
         217       65      4   0.417   -11.9688882663    -7.1397895279    -9.6383169574 # SOLV-65-TIP3-H2-HT
         218       66     10  -0.834    -0.2935918451    -5.3117081121     0.6432330559 # SOLV-66-TIP3-OH2-OT
         219       66      4   0.417    -0.1794037482    -5.4556131800    -0.3216006362 # SOLV-66-TIP3-H1-HT
         220       66      4   0.417    -1.2310388907    -5.5288070462     0.7597819262 # SOLV-66-TIP3-H2-HT
         221       67     10  -0.834    -3.6534820393    -8.7510656556    -4.8282621749 # SOLV-67-TIP3-OH2-OT
         222       67      4   0.417    -4.5376074052    -8.6626370210    -4.4145009991 # SOLV-67-TIP3-H1-HT
         223       67      4   0.417    -3.1088096795    -9.0611592043    -4.0758388724 # SOLV-67-TIP3-H2-HT
         224       68     10  -0.834    -9.2269550272    -6.5274930388    -6.0563852600 # SOLV-68-TIP3-OH2-OT
         225       68      4   0.417    -9.8284098844    -6.0629981419    -6.6973347867 # SOLV-68-TIP3-H1-HT
         226       68      4   0.417    -9.0314419089    -7.3559112420    -6.5265122532 # SOLV-68-TIP3-H2-HT
         227       69     10  -0.834    -6.1067997126    -6.7280790413    -8.1421230712 # SOLV-69-TIP3-OH2-OT
         228       69      4   0.417    -5.1341185530    -6.6857369125    -8.0657924787 # SOLV-69-TIP3-H1-HT
         229       69      4   0.417    -6.2856157880    -6.3692723953    -9.0424054074 # SOLV-69-TIP3-H2-HT
         230       70     10  -0.834    -0.1368426371    -8.8343524826    -1.6666471530 # SOLV-70-TIP3-OH2-OT
         231       70      4   0.417    -0.5412963755    -8.8241594977    -0.7715572116 # SOLV-70-TIP3-H1-HT
         232       70      4   0.417    -0.8042263530    -9.3635187565    -2.1502833603 # SOLV-70-TIP3-H2-HT
         233       71     10  -0.834    -6.8510630544    -6.1196703565   -10.6776960035 # SOLV-71-TIP3-OH2-OT
         234       71      4   0.417    -7.7523792959    -5.9867218300   -11.0498452384 # SOLV-71-TIP3-H1-HT
         235       71      4   0.417    -6.3103612485    -5.4971081526   -11.1892809768 # SOLV-71-TIP3-H2-HT
         236       72     10  -0.834     3.6926507085     6.3988407291     5.1127019865 # SOLV-72-TIP3-OH2-OT
         237       72      4   0.417     3.9051720955     6.7886833043     4.2398964162 # SOLV-72-TIP3-H1-HT
         238       72      4   0.417     4.4054710739     6.7803526155     5.6578613908 # SOLV-72-TIP3-H2-HT
         239       73     10  -0.834    -8.5950565246    -0.8763179782     4.1824021588 # SOLV-73-TIP3-OH2-OT
         240       73      4   0.417    -7.9632062336    -0.9382624769     4.9257142622 # SOLV-73-TIP3-H1-HT
         241       73      4   0.417    -9.4235339001    -0.6839081938     4.6506494305 # SOLV-73-TIP3-H2-HT
         242       74     10  -0.834    -3.1130061021    -5.7402190005    -2.9837857049 # SOLV-74-TIP3-OH2-OT
         243       74      4   0.417    -2.4068753125    -6.2245927877    -3.4511675180 # SOLV-74-TIP3-H1-HT
         244       74      4   0.417    -3.3835573331    -6.3617525648    -2.2789116944 # SOLV-74-TIP3-H2-HT
         245       75     10  -0.834    -8.0096615429    -9.1717397777    -6.3825723735 # SOLV-75-TIP3-OH2-OT
         246       75      4   0.417    -8.7400731733    -9.8153864997    -6.2559593234 # SOLV-75-TIP3-H1-HT
         247       75      4   0.417    -7.6735671133    -9.4302731873    -7.2530514588 # SOLV-75-TIP3-H2-HT
         248       76     10  -0.834    -4.2528421846    -6.9985167568    -0.7165777965 # SOLV-76-TIP3-OH2-OT
         249       76      4   0.417    -5.1147954857    -6.5283810449    -0.6680203531 # SOLV-76-TIP3-H1-HT
         250       76      4   0.417    -3.7687003651    -6.6233138748     0.0435076574 # SOLV-76-TIP3-H2-HT
         251       77     10  -0.834    -3.7525032458    -1.1719649317    -8.6646450075 # SOLV-77-TIP3-OH2-OT
         252       77      4   0.417    -4.4808643633    -1.5826505306    -9.1801176136 # SOLV-77-TIP3-H1-HT
         253       77      4   0.417    -4.2541527290    -0.8994200560    -7.8563898809 # SOLV-77-TIP3-H2-HT
         254       78     10  -0.834     0.0148548354    -8.6045770716   -10.1670322684 # SOLV-78-TIP3-OH2-OT
         255       78      4   0.417    -0.8371074028    -8.5079717957   -10.6327779702 # SOLV-78-TIP3-H1-HT
         256       78      4   0.417     0.1970190621    -7.6914595352    -9.8615105721 # SOLV-78-TIP3-H2-HT
         257       79     10  -0.834     0.6985614311    -6.3320064938    -8.7619828274 # SOLV-79-TIP3-OH2-OT
         258       79      4   0.417     1.5861458584    -6.4984734801    -8.3854604438 # SOLV-79-TIP3-H1-HT
         259       79      4   0.417     0.8177162871    -5.4591944780    -9.1859369403 # SOLV-79-TIP3-H2-HT
         260       80     10  -0.834    -8.2373320693    -1.4788639627    -2.9614864816 # SOLV-80-TIP3-OH2-OT