LAMMPS data file. CGCMM Style. atom_style full. Created by charmm2lammps v1.9.2 on Tue Mar 10 13:50:52 MDT 2026

        1363  atoms
         915  bonds
         483  angles
          41  dihedrals
           4  impropers

           3  atom types
           0  bond types
           0  angle types
           0  dihedral types
           0  improper types

     -12.498        12.43 xlo xhi
     -12.397        12.45 ylo yhi
     -12.304       12.371 zlo zhi

Masses

       1      32.06  # SS
       2      1.008  # HT
       3    15.9994  # OT

Pair Coeffs # lj/charmm/coul/long

       1             0.47    3.91995435982             0.47    3.91995435982  # SS

Atoms # full

       1       1     1     -0.27                2             2.09                0  # SS
       2       1     1      0.09                2                1                0  # SS
       3       1     1      0.09            1.486            2.454             0.89  # SS
       4       1     1      0.09            1.486            2.454            -0.89  # SS
       5       1     1      0.51            3.427            2.641                0  # SS
       6       1     1     -0.51            4.391            1.877                0  # SS
       7       1     1     -0.47            3.555             3.97                0  # SS
       8       1     1      0.31            2.733            4.556                0  # SS
       9       1     1      0.07            4.853            4.614                0  # SS
      10       1     1      0.09            5.408            4.316             0.89  # SS
      11       1     1     -0.27            5.661            4.221           -1.232  # SS
      12       1     1      0.09            5.123            4.521           -2.131  # SS
      13       1     1      0.09             6.63            4.719           -1.206  # SS
      14       1     1      0.09            5.809            3.141           -1.241  # SS
      15       1     1      0.51            4.713            6.129                0  # SS
      16       1     1     -0.51            3.601            6.653                0  # SS
      17       1     1     -0.47            5.846            6.835                0  # SS
      18       1     1      0.31            6.737            6.359                0  # SS
      19       1     1     -0.11            5.846            8.284                0  # SS
      20       1     1      0.09            4.819            8.648                0  # SS
      21       1     1      0.09             6.36            8.648             0.89  # SS
      22       1     1      0.09             6.36            8.648            -0.89  # SS
      23       2     3    -0.834           -8.832           -2.418            3.404  # OT
      24       2     2     0.417           -9.276           -2.049            2.601  # HT
      25       2     2     0.417           -9.408           -2.121            4.127  # HT
      26       3     3    -0.834           -6.467           -7.624            8.391  # OT
      27       3     2     0.417           -6.422           -7.276            9.298  # HT
      28       3     2     0.417           -5.908           -8.412            8.461  # HT
      29       4     3    -0.834           -7.314            4.196           -0.428  # OT
      30       4     2     0.417           -6.417            4.479           -0.684  # HT
      31       4     2     0.417           -7.163            3.332            -0.01  # HT
      32       5     3    -0.834           -4.176            1.311            8.832  # OT
      33       5     2     0.417           -3.867            0.848            9.612  # HT
      34       5     2     0.417           -3.994            0.616            8.145  # HT
      35       6     3    -0.834           -8.714            3.818           -11.19  # OT
      36       6     2     0.417           -8.719            2.888          -11.304  # HT
      37       6     2     0.417           -7.972             4.08          -11.719  # HT
      38       7     3    -0.834           -6.295           -5.509            5.942  # OT
      39       7     2     0.417           -5.718           -5.153            6.652  # HT
      40       7     2     0.417           -7.191           -5.438              6.3  # HT
      41       8     3    -0.834            3.626            2.201           -7.923  # OT
      42       8     2     0.417             3.57            1.772           -8.774  # HT
      43       8     2     0.417            4.305            2.954           -8.055  # HT
      44       9     3    -0.834            -9.75           -3.656           -2.871  # OT
      45       9     2     0.417           -10.39            -4.21           -2.502  # HT
      46       9     2     0.417          -10.336           -3.255           -3.538  # HT
      47      10     3    -0.834           -8.565            3.695            9.609  # OT
      48      10     2     0.417            -7.63            3.534            9.485  # HT
      49      10     2     0.417           -8.845            2.867           10.081  # HT
      50      11     3    -0.834           -1.826           -3.591           -7.514  # OT
      51      11     2     0.417           -1.502           -3.629           -6.568  # HT
      52      11     2     0.417           -2.752            -3.23           -7.425  # HT
      53      12     3    -0.834          -12.498           -6.833            2.091  # OT
      54      12     2     0.417          -12.017            -6.51             1.33  # HT
      55      12     2     0.417          -11.892           -6.719            2.847  # HT
      56      13     3    -0.834           -2.618           -3.344            2.416  # OT
      57      13     2     0.417           -2.926           -2.747            3.097  # HT
      58      13     2     0.417           -2.479           -4.236            2.789  # HT
      59      14     3    -0.834          -10.839           -5.819          -10.557  # OT
      60      14     2     0.417          -10.557           -6.761          -10.519  # HT
      61      14     2     0.417          -11.722           -5.901          -11.017  # HT
      62      15     3    -0.834           -7.679            8.103           -1.261  # OT
      63      15     2     0.417           -7.034            8.282           -0.537  # HT
      64      15     2     0.417           -7.116            8.414           -2.044  # HT
      65      16     3    -0.834          -11.161           -8.718           10.314  # OT
      66      16     2     0.417          -11.661           -9.075            9.587  # HT
      67      16     2     0.417          -10.725           -9.423           10.638  # HT
      68      17     3    -0.834          -12.015            2.637            9.976  # OT
      69      17     2     0.417          -11.856            2.925           10.849  # HT
      70      17     2     0.417          -12.188            3.461            9.475  # HT
      71      18     3    -0.834           -6.892           11.418            0.459  # OT
      72      18     2     0.417            -7.66           11.122            0.045  # HT
      73      18     2     0.417           -6.463           11.836           -0.292  # HT
      74      19     3    -0.834           -2.074           -4.896          -10.096  # OT
      75      19     2     0.417           -1.739           -4.099          -10.506  # HT
      76      19     2     0.417           -2.252           -4.611           -9.192  # HT
      77      20     3    -0.834           -8.231           10.252            3.765  # OT
      78      20     2     0.417           -8.351            11.18            3.388  # HT
      79      20     2     0.417           -7.439           10.296            4.276  # HT
      80      21     3    -0.834           -8.901            1.189           11.083  # OT
      81      21     2     0.417            -9.07            0.376           11.562  # HT
      82      21     2     0.417           -7.939            1.269           11.161  # HT
      83      22     3    -0.834           10.072           -6.258           -9.022  # OT
      84      22     2     0.417            9.205           -6.655            -8.67  # HT
      85      22     2     0.417           10.451           -6.841           -9.642  # HT
      86      23     3    -0.834           -1.574           -7.135          -11.482  # OT
      87      23     2     0.417           -1.362           -7.731          -10.746  # HT
      88      23     2     0.417           -1.843           -6.288          -11.007  # HT
      89      24     3    -0.834           -3.853           -8.186            6.778  # OT
      90      24     2     0.417           -4.536           -8.889            6.826  # HT
      91      24     2     0.417           -4.457           -7.436            6.653  # HT
      92      25     3    -0.834           -4.119            4.819           10.775  # OT
      93      25     2     0.417           -4.984             4.84           11.195  # HT
      94      25     2     0.417           -4.069            5.763           10.509  # HT
      95      26     3    -0.834           -8.201            5.274           -5.331  # OT
      96      26     2     0.417           -9.197            5.303           -5.178  # HT
      97      26     2     0.417           -7.967            6.255           -5.576  # HT
      98      27     3    -0.834           -3.608            0.477           -7.179  # OT
      99      27     2     0.417           -4.381           -0.022           -7.057  # HT
     100      27     2     0.417           -3.158            0.057           -7.964  # HT
     101      28     3    -0.834           -9.792            8.469           12.004  # OT
     102      28     2     0.417           -9.911            8.445           11.056  # HT
     103      28     2     0.417           -9.377            9.335           12.049  # HT
     104      29     3    -0.834          -10.326            5.968          -10.288  # OT
     105      29     2     0.417           -9.868            5.128          -10.297  # HT
     106      29     2     0.417           -9.569             6.62          -10.219  # HT
     107      30     3    -0.834            1.112             5.18            6.122  # OT
     108      30     2     0.417            1.244            4.914            7.008  # HT
     109      30     2     0.417            2.026            5.331            5.847  # HT
     110      31     3    -0.834          -11.213           11.632           11.237  # OT
     111      31     2     0.417          -11.265           11.424           12.231  # HT
     112      31     2     0.417          -10.412           12.209           11.139  # HT
     113      32     3    -0.834            2.914           -5.931           -9.999  # OT
     114      32     2     0.417            3.724           -5.642          -10.372  # HT
     115      32     2     0.417            2.308             -5.8          -10.829  # HT
     116      33     3    -0.834           -2.565            0.376           -2.309  # OT
     117      33     2     0.417           -2.791           -0.402           -2.866  # HT
     118      33     2     0.417           -3.028            0.266           -1.482  # HT
     119      34     3    -0.834            -5.44          -10.426             7.33  # OT
     120      34     2     0.417            -4.85          -10.881            8.028  # HT
     121      34     2     0.417           -6.352          -10.704            7.535  # HT
     122      35     3    -0.834            1.391          -10.581           -9.508  # OT
     123      35     2     0.417            1.698           -9.819           -9.078  # HT
     124      35     2     0.417            0.712          -10.923           -8.922  # HT
     125      36     3    -0.834           -3.677           -1.919           -3.673  # OT
     126      36     2     0.417           -4.317           -1.747           -4.352  # HT
     127      36     2     0.417           -4.111           -2.439           -2.966  # HT
     128      37     3    -0.834           -3.422           -0.533            0.234  # OT
     129      37     2     0.417           -4.272           -0.939            0.493  # HT
     130      37     2     0.417           -2.988           -0.306             1.06  # HT
     131      38     3    -0.834           -2.218           -11.86          -10.447  # OT
     132      38     2     0.417           -2.133          -11.541           -9.484  # HT
     133      38     2     0.417           -2.757          -11.177          -10.833  # HT
     134      39     3    -0.834           -7.882           -4.375           -4.723  # OT
     135      39     2     0.417           -7.095           -4.581           -4.186  # HT
     136      39     2     0.417           -8.498           -4.042           -4.078  # HT
     137      40     3    -0.834           -9.097           -7.813           -2.685  # OT
     138      40     2     0.417           -9.391           -7.228           -3.403  # HT
     139      40     2     0.417           -8.683           -8.527           -3.173  # HT
     140      41     3    -0.834           -9.224           -5.035            6.825  # OT
     141      41     2     0.417           -9.728           -5.509            7.464  # HT
     142      41     2     0.417           -8.896           -4.212            7.253  # HT
     143      42     3    -0.834           -9.381           -2.175            0.658  # OT
     144      42     2     0.417           -8.902             -1.6            0.012  # HT
     145      42     2     0.417            -9.06            -3.07            0.462  # HT
     146      43     3    -0.834          -10.122           -6.694            3.753  # OT
     147      43     2     0.417          -10.343           -6.339            4.599  # HT
     148      43     2     0.417           -9.199           -6.468            3.626  # HT
     149      44     3    -0.834           -6.118            9.771          -10.181  # OT
     150      44     2     0.417            -6.95            9.535          -10.653  # HT
     151      44     2     0.417           -5.641            8.972          -10.308  # HT
     152      45     3    -0.834           -8.483           -8.595            6.918  # OT
     153      45     2     0.417           -9.358           -8.458            6.632  # HT
     154      45     2     0.417           -7.918           -7.773            6.795  # HT
     155      46     3    -0.834          -10.156            7.972            9.131  # OT
     156      46     2     0.417           -9.568            8.321            8.445  # HT
     157      46     2     0.417          -11.033            8.048            8.638  # HT
     158      47     3    -0.834          -10.713           -2.982           12.015  # OT
     159      47     2     0.417          -10.368           -2.925           11.146  # HT
     160      47     2     0.417           -10.64           -2.094           12.287  # HT
     161      48     3    -0.834            2.026           -1.968            7.637  # OT
     162      48     2     0.417            1.662           -2.767            8.003  # HT
     163      48     2     0.417            1.966            -2.08            6.694  # HT
     164      49     3    -0.834           -6.927            2.304             6.59  # OT
     165      49     2     0.417           -6.541            2.839            7.308  # HT
     166      49     2     0.417           -6.631            2.913            5.831  # HT
     167      50     3    -0.834            3.783           -5.146           10.281  # OT
     168      50     2     0.417             3.14           -4.442            9.949  # HT
     169      50     2     0.417            3.473            -5.94            9.879  # HT
     170      51     3    -0.834           10.372            5.941            4.288  # OT
     171      51     2     0.417            9.701            5.364            3.879  # HT
     172      51     2     0.417            9.835            6.481            4.925  # HT
     173      52     3    -0.834           -7.042            0.597           -7.911  # OT
     174      52     2     0.417           -6.827            0.519           -8.888  # HT
     175      52     2     0.417           -7.601            1.394           -7.843  # HT
     176      53     3    -0.834           -7.948           -11.13             7.83  # OT
     177      53     2     0.417           -8.226          -10.306            7.453  # HT
     178      53     2     0.417           -8.265          -11.699            7.071  # HT
     179      54     3    -0.834            -7.34            1.244           -4.546  # OT
     180      54     2     0.417           -6.452            0.922           -4.293  # HT
     181      54     2     0.417           -7.492            1.993           -3.972  # HT
     182      55     3    -0.834            -2.11           -6.114            6.328  # OT
     183      55     2     0.417           -1.812           -6.016            7.231  # HT
     184      55     2     0.417           -2.656           -6.911            6.421  # HT
     185      56     3    -0.834          -10.822            9.442          -11.465  # OT
     186      56     2     0.417          -11.228             8.78          -10.908  # HT
     187      56     2     0.417          -11.002           10.309          -11.007  # HT
     188      57     3    -0.834            -2.87            9.047             -9.5  # OT
     189      57     2     0.417           -2.899            9.971           -9.857  # HT
     190      57     2     0.417           -3.213            8.454          -10.188  # HT
     191      58     3    -0.834          -10.156           -1.929           -9.876  # OT
     192      58     2     0.417          -10.378           -1.747           -8.947  # HT
     193      58     2     0.417           -9.553           -2.709           -9.883  # HT
     194      59     3    -0.834          -11.677           11.168           -9.612  # OT
     195      59     2     0.417          -10.864           10.816            -9.16  # HT
     196      59     2     0.417          -12.247           11.478            -8.86  # HT
     197      60     3    -0.834            -9.79           -6.315            -4.96  # OT
     198      60     2     0.417          -10.033           -6.264           -5.939  # HT
     199      60     2     0.417            -9.09           -5.645            -4.92  # HT
     200      61     3    -0.834           -5.589            6.958            4.835  # OT
     201      61     2     0.417           -4.983            7.618            4.457  # HT
     202      61     2     0.417           -6.185            6.636            4.088  # HT
     203      62     3    -0.834            3.692            9.903           -8.718  # OT
     204      62     2     0.417            3.863           10.381           -7.878  # HT
     205      62     2     0.417            3.927           10.565           -9.414  # HT
     206      63     3    -0.834             1.04             9.72           -9.752  # OT
     207      63     2     0.417            0.465            9.975           -9.038  # HT
     208      63     2     0.417            1.928            9.904           -9.426  # HT
     209      64     3    -0.834           -4.319           10.965           -4.863  # OT
     210      64     2     0.417           -3.493           11.437           -4.797  # HT
     211      64     2     0.417           -4.983           11.617           -5.188  # HT
     212      65     3    -0.834           -1.571             2.25           -6.782  # OT
     213      65     2     0.417            -2.45            2.041           -7.092  # HT
     214      65     2     0.417           -1.099            1.379           -6.783  # HT
     215      66     3    -0.834           10.831            9.119            5.569  # OT
     216      66     2     0.417           10.637           10.016            5.956  # HT
     217      66     2     0.417           10.163            8.485             5.95  # HT
     218      67     3    -0.834            4.007             4.67            8.506  # OT
     219      67     2     0.417            4.726            4.506            7.795  # HT
     220      67     2     0.417             3.53            3.797            8.582  # HT
     221      68     3    -0.834          -11.753           -8.031           -1.921  # OT
     222      68     2     0.417          -12.074           -8.932           -2.161  # HT
     223      68     2     0.417          -10.995           -7.915            -2.51  # HT
     224      69     3    -0.834           -7.144           -7.112            3.546  # OT
     225      69     2     0.417           -6.616           -6.436            3.961  # HT
     226      69     2     0.417           -6.908           -7.878            4.037  # HT
     227      70     3    -0.834           -1.796           -5.779            3.383  # OT
     228      70     2     0.417           -1.599           -5.588            4.336  # HT
     229      70     2     0.417           -2.373           -6.528            3.498  # HT
     230      71     3    -0.834           -0.737            7.114           -2.542  # OT
     231      71     2     0.417           -0.221            7.905           -2.634  # HT
     232      71     2     0.417           -0.065            6.405           -2.599  # HT
     233      72     3    -0.834           -5.473          -10.276            0.911  # OT
     234      72     2     0.417           -6.315           -9.699            1.035  # HT
     235      72     2     0.417           -5.808          -11.097            1.242  # HT
     236      73     3    -0.834            5.312           -6.729           -6.624  # OT
     237      73     2     0.417             4.72           -6.184            -7.12  # HT
     238      73     2     0.417            5.051           -7.631           -6.831  # HT
     239      74     3    -0.834           -8.472           -4.801            0.276  # OT
     240      74     2     0.417           -7.923           -5.307           -0.362  # HT
     241      74     2     0.417           -9.329            -5.18            0.044  # HT
     242      75     3    -0.834            9.633           -9.614            7.343  # OT
     243      75     2     0.417           10.429           -9.904            7.762  # HT
     244      75     2     0.417            8.986           -9.672            8.061  # HT
     245      76     3    -0.834           -0.007           -3.049          -10.285  # OT
     246      76     2     0.417            0.408            -2.66           -9.513  # HT
     247      76     2     0.417            0.482           -3.859          -10.461  # HT
     248      77     3    -0.834           -1.323            -2.89           -4.572  # OT
     249      77     2     0.417           -2.057           -2.328           -4.447  # HT
     250      77     2     0.417           -1.634           -3.712           -4.202  # HT
     251      78     3    -0.834          -10.662           -9.294            2.898  # OT
     252      78     2     0.417          -10.299           -8.419            3.045  # HT
     253      78     2     0.417          -10.383           -9.501            1.922  # HT
     254      79     3    -0.834            3.633            0.093            4.408  # OT
     255      79     2     0.417            2.852            0.269            3.891  # HT
     256      79     2     0.417            3.387           -0.624            5.011  # HT
     257      80     3    -0.834          -10.601           -0.876            5.393  # OT
     258      80     2     0.417          -11.361           -0.822            4.805  # HT
     259      80     2     0.417          -10.242            0.035            5.355  # HT
     260      81     3    -0.834            -3.28            1.404             4.84  # OT
     261      81     2     0.417           -2.438            1.698            5.238  # HT
     262      81     2     0.417           -3.106            0.499            4.602  # HT
     263      82     3    -0.834           -9.042           -2.632            9.919  # OT
     264      82     2     0.417           -8.102           -2.484           10.154  # HT
     265      82     2     0.417           -9.052           -2.311            8.995  # HT
     266      83     3    -0.834            5.941            3.634            -8.66  # OT
     267      83     2     0.417             6.11            3.988           -9.532  # HT
     268      83     2     0.417            6.613            2.907           -8.539  # HT
     269      84     3    -0.834             2.93           -9.226           -5.093  # OT
     270      84     2     0.417            2.958           -9.759           -4.343  # HT
     271      84     2     0.417            3.433            -9.76            -5.73  # HT
     272      85     3    -0.834            0.634           -7.965           -5.941  # OT
     273      85     2     0.417           -0.066           -8.568           -5.562  # HT
     274      85     2     0.417            1.459           -8.338           -5.535  # HT
     275      86     3    -0.834            3.821            6.995             3.37  # OT
     276      86     2     0.417             4.46            6.659            2.692  # HT
     277      86     2     0.417            4.354            7.632            3.888  # HT
     278      87     3    -0.834           -2.205            1.566             1.82  # OT
     279      87     2     0.417           -1.908            1.567            2.726  # HT
     280      87     2     0.417           -3.178            1.726             1.85  # HT
     281      88     3    -0.834            2.898          -10.948            5.746  # OT
     282      88     2     0.417            3.516          -10.549            5.066  # HT
     283      88     2     0.417            2.074          -10.489            5.609  # HT
     284      89     3    -0.834            -4.67            7.251          -10.505  # OT
     285      89     2     0.417           -5.243             7.37          -11.253  # HT
     286      89     2     0.417           -4.171            6.423          -10.615  # HT
     287      90     3    -0.834            2.527           -1.251           -2.694  # OT
     288      90     2     0.417            3.136           -1.547           -3.396  # HT
     289      90     2     0.417            2.429           -0.306           -2.955  # HT
     290      91     3    -0.834             7.03            7.313           11.913  # OT
     291      91     2     0.417            7.899            7.751           11.831  # HT
     292      91     2     0.417            7.255            6.376           11.918  # HT
     293      92     3    -0.834           -2.226           -1.052            8.459  # OT
     294      92     2     0.417           -1.607           -1.427            9.154  # HT
     295      92     2     0.417           -2.156           -1.609            7.738  # HT
     296      93     3    -0.834           -1.027           -6.425            9.202  # OT
     297      93     2     0.417           -0.454           -6.833            9.931  # HT
     298      93     2     0.417           -1.946           -6.561              9.6  # HT
     299      94     3    -0.834            8.508            -9.23            2.673  # OT
     300      94     2     0.417             7.89           -8.464            2.584  # HT
     301      94     2     0.417            9.268           -8.908            2.249  # HT
     302      95     3    -0.834             -5.7            4.159            4.684  # OT
     303      95     2     0.417           -5.357            4.149            3.827  # HT
     304      95     2     0.417           -5.391            5.002            5.068  # HT
     305      96     3    -0.834            -6.72            5.016           11.524  # OT
     306      96     2     0.417           -7.394            4.826           10.841  # HT
     307      96     2     0.417            -6.75            5.985           11.594  # HT
     308      97     3    -0.834            2.103             5.61           -9.287  # OT
     309      97     2     0.417            1.775            5.155           -8.537  # HT
     310      97     2     0.417            1.342            6.106           -9.622  # HT
     311      98     3    -0.834           -7.747            7.639           -7.025  # OT
     312      98     2     0.417           -7.731            8.553           -6.654  # HT
     313      98     2     0.417           -6.837            7.531           -7.299  # HT
     314      99     3    -0.834          -10.885            4.855            1.855  # OT
     315      99     2     0.417          -11.275             3.98             1.92  # HT
     316      99     2     0.417          -11.641            5.484            1.551  # HT
     317     100     3    -0.834           -1.413            3.287             7.65  # OT
     318     100     2     0.417           -1.279            2.377            7.198  # HT
     319     100     2     0.417           -0.564             3.44            8.091  # HT
     320     101     3    -0.834           10.078           11.165           10.729  # OT
     321     101     2     0.417           10.896           10.999           10.234  # HT
     322     101     2     0.417             9.42           11.275           10.061  # HT
     323     102     3    -0.834           -2.716             5.56            3.939  # OT
     324     102     2     0.417           -1.924            5.666            3.422  # HT
     325     102     2     0.417           -2.559            6.084            4.734  # HT